LAMMPS data file for SPCE water

2709 atoms
1806 bonds
903 angles

2 atom types
1 bond types
1 angle types

0.0 30 xlo xhi
0.0 30 ylo yhi
0.0 30 zlo zhi

Masses

1 15.9994
2 1.008

Atoms

1 1 1 -0.8476 0.0 0.0 0.0
2 1 2 0.4238 0.8164904309201172 0.5773589665155304 0.0
3 1 2 0.4238 -0.8164904309201172 0.5773589665155304 0.0
4 2 1 -0.8476 3.1037876777349744 0.0 0.0
5 2 2 0.4238 3.9202781086550917 0.5773589665155304 0.0
6 2 2 0.4238 2.287297246814857 0.5773589665155304 0.0
7 3 1 -0.8476 6.207575355469949 0.0 0.0
8 3 2 0.4238 7.024065786390066 0.5773589665155304 0.0
9 3 2 0.4238 5.391084924549832 0.5773589665155304 0.0
10 4 1 -0.8476 9.311363033204923 0.0 0.0
11 4 2 0.4238 10.12785346412504 0.5773589665155304 0.0
12 4 2 0.4238 8.494872602284806 0.5773589665155304 0.0
13 5 1 -0.8476 12.415150710939898 0.0 0.0
14 5 2 0.4238 13.231641141860015 0.5773589665155304 0.0
15 5 2 0.4238 11.59866028001978 0.5773589665155304 0.0
16 6 1 -0.8476 15.518938388674872 0.0 0.0
17 6 2 0.4238 16.335428819594988 0.5773589665155304 0.0
18 6 2 0.4238 14.702447957754755 0.5773589665155304 0.0
19 7 1 -0.8476 18.622726066409847 0.0 0.0
20 7 2 0.4238 19.439216497329962 0.5773589665155304 0.0
21 7 2 0.4238 17.80623563548973 0.5773589665155304 0.0
22 8 1 -0.8476 21.72651374414482 0.0 0.0
23 8 2 0.4238 22.543004175064937 0.5773589665155304 0.0
24 8 2 0.4238 20.910023313224706 0.5773589665155304 0.0
25 9 1 -0.8476 24.830301421879795 0.0 0.0
26 9 2 0.4238 25.64679185279991 0.5773589665155304 0.0
27 9 2 0.4238 24.01381099095968 0.5773589665155304 0.0
28 10 1 -0.8476 27.93408909961477 0.0 0.0
29 10 2 0.4238 28.750579530534885 0.5773589665155304 0.0
30 10 2 0.4238 27.117598668694654 0.5773589665155304 0.0
31 11 1 -0.8476 1.0378767773497428 3.1037876777349744 0.0
32 11 2 0.4238 1.85436720826986 3.681146644250505 0.0
33 11 2 0.4238 0.22138634642962562 3.681146644250505 0.0
34 12 1 -0.8476 4.141664455084717 3.1037876777349744 0.0
35 12 2 0.4238 4.958154886004834 3.681146644250505 0.0
36 12 2 0.4238 3.3251740241645997 3.681146644250505 0.0
37 13 1 -0.8476 7.2454521328196915 3.1037876777349744 0.0
38 13 2 0.4238 8.061942563739809 3.681146644250505 0.0
39 13 2 0.4238 6.428961701899574 3.681146644250505 0.0
40 14 1 -0.8476 10.349239810554666 3.1037876777349744 0.0
41 14 2 0.4238 11.165730241474783 3.681146644250505 0.0
42 14 2 0.4238 9.532749379634549 3.681146644250505 0.0
43 15 1 -0.8476 13.45302748828964 3.1037876777349744 0.0
44 15 2 0.4238 14.269517919209758 3.681146644250505 0.0
45 15 2 0.4238 12.636537057369523 3.681146644250505 0.0
46 16 1 -0.8476 16.556815166024617 3.1037876777349744 0.0
47 16 2 0.4238 17.373305596944732 3.681146644250505 0.0
48 16 2 0.4238 15.7403247351045 3.681146644250505 0.0
49 17 1 -0.8476 19.66060284375959 3.1037876777349744 0.0
50 17 2 0.4238 20.477093274679707 3.681146644250505 0.0
51 17 2 0.4238 18.844112412839475 3.681146644250505 0.0
52 18 1 -0.8476 22.764390521494565 3.1037876777349744 0.0
53 18 2 0.4238 23.58088095241468 3.681146644250505 0.0
54 18 2 0.4238 21.94790009057445 3.681146644250505 0.0
55 19 1 -0.8476 25.86817819922954 3.1037876777349744 0.0
56 19 2 0.4238 26.684668630149655 3.681146644250505 0.0
57 19 2 0.4238 25.051687768309424 3.681146644250505 0.0
58 20 1 -0.8476 28.971965876964514 3.1037876777349744 0.0
59 20 2 0.4238 29.78845630788463 3.681146644250505 0.0
60 20 2 0.4238 28.1554754460444 3.681146644250505 0.0
61 21 1 -0.8476 2.0757535546994856 6.207575355469949 0.0
62 21 2 0.4238 2.892243985619603 6.784934321985479 0.0
63 21 2 0.4238 1.2592631237793683 6.784934321985479 0.0
64 22 1 -0.8476 5.17954123243446 6.207575355469949 0.0
65 22 2 0.4238 5.996031663354577 6.784934321985479 0.0
66 22 2 0.4238 4.363050801514342 6.784934321985479 0.0
67 23 1 -0.8476 8.283328910169434 6.207575355469949 0.0
68 23 2 0.4238 9.099819341089551 6.784934321985479 0.0
69 23 2 0.4238 7.466838479249317 6.784934321985479 0.0
70 24 1 -0.8476 11.387116587904409 6.207575355469949 0.0
71 24 2 0.4238 12.203607018824526 6.784934321985479 0.0
72 24 2 0.4238 10.570626156984291 6.784934321985479 0.0
73 25 1 -0.8476 14.490904265639383 6.207575355469949 0.0
74 25 2 0.4238 15.3073946965595 6.784934321985479 0.0
75 25 2 0.4238 13.674413834719266 6.784934321985479 0.0
76 26 1 -0.8476 17.594691943374357 6.207575355469949 0.0
77 26 2 0.4238 18.411182374294473 6.784934321985479 0.0
78 26 2 0.4238 16.778201512454242 6.784934321985479 0.0
79 27 1 -0.8476 20.698479621109332 6.207575355469949 0.0
80 27 2 0.4238 21.514970052029447 6.784934321985479 0.0
81 27 2 0.4238 19.881989190189216 6.784934321985479 0.0
82 28 1 -0.8476 23.802267298844306 6.207575355469949 0.0
83 28 2 0.4238 24.618757729764422 6.784934321985479 0.0
84 28 2 0.4238 22.98577686792419 6.784934321985479 0.0
85 29 1 -0.8476 26.90605497657928 6.207575355469949 0.0
86 29 2 0.4238 27.722545407499396 6.784934321985479 0.0
87 29 2 0.4238 26.089564545659165 6.784934321985479 0.0
88 30 1 -0.8476 0.009842654314253999 9.311363033204923 0.0
89 30 2 0.4238 0.8263330852343712 9.888721999720454 0.0
90 30 2 0.4238 -0.8066477766058632 9.888721999720454 0.0
91 31 1 -0.8476 3.1136303320492282 9.311363033204923 0.0
92 31 2 0.4238 3.9301207629693455 9.888721999720454 0.0
93 31 2 0.4238 2.297139901129111 9.888721999720454 0.0
94 32 1 -0.8476 6.217418009784203 9.311363033204923 0.0
95 32 2 0.4238 7.03390844070432 9.888721999720454 0.0
96 32 2 0.4238 5.400927578864086 9.888721999720454 0.0
97 33 1 -0.8476 9.321205687519177 9.311363033204923 0.0
98 33 2 0.4238 10.137696118439294 9.888721999720454 0.0
99 33 2 0.4238 8.50471525659906 9.888721999720454 0.0
100 34 1 -0.8476 12.424993365254151 9.311363033204923 0.0
101 34 2 0.4238 13.241483796174268 9.888721999720454 0.0
102 34 2 0.4238 11.608502934334034 9.888721999720454 0.0
103 35 1 -0.8476 15.528781042989126 9.311363033204923 0.0
104 35 2 0.4238 16.345271473909243 9.888721999720454 0.0
105 35 2 0.4238 14.712290612069008 9.888721999720454 0.0
106 36 1 -0.8476 18.6325687207241 9.311363033204923 0.0
107 36 2 0.4238 19.449059151644217 9.888721999720454 0.0
108 36 2 0.4238 17.816078289803986 9.888721999720454 0.0
109 37 1 -0.8476 21.736356398459076 9.311363033204923 0.0
110 37 2 0.4238 22.55284682937919 9.888721999720454 0.0
111 37 2 0.4238 20.91986596753896 9.888721999720454 0.0
112 38 1 -0.8476 24.84014407619405 9.311363033204923 0.0
113 38 2 0.4238 25.656634507114166 9.888721999720454 0.0
114 38 2 0.4238 24.023653645273935 9.888721999720454 0.0
115 39 1 -0.8476 27.943931753929025 9.311363033204923 0.0
116 39 2 0.4238 28.76042218484914 9.888721999720454 0.0
117 39 2 0.4238 27.12744132300891 9.888721999720454 0.0
118 40 1 -0.8476 1.0477194316639968 12.415150710939898 0.0
119 40 2 0.4238 1.8642098625841141 12.992509677455429 0.0
120 40 2 0.4238 0.23122900074387964 12.992509677455429 0.0
121 41 1 -0.8476 4.151507109398971 12.415150710939898 0.0
122 41 2 0.4238 4.967997540319089 12.992509677455429 0.0
123 41 2 0.4238 3.335016678478854 12.992509677455429 0.0
124 42 1 -0.8476 7.255294787133946 12.415150710939898 0.0
125 42 2 0.4238 8.071785218054062 12.992509677455429 0.0
126 42 2 0.4238 6.438804356213828 12.992509677455429 0.0
127 43 1 -0.8476 10.35908246486892 12.415150710939898 0.0
128 43 2 0.4238 11.175572895789037 12.992509677455429 0.0
129 43 2 0.4238 9.542592033948802 12.992509677455429 0.0
130 44 1 -0.8476 13.462870142603894 12.415150710939898 0.0
131 44 2 0.4238 14.279360573524011 12.992509677455429 0.0
132 44 2 0.4238 12.646379711683776 12.992509677455429 0.0
133 45 1 -0.8476 16.566657820338868 12.415150710939898 0.0
134 45 2 0.4238 17.383148251258984 12.992509677455429 0.0
135 45 2 0.4238 15.75016738941875 12.992509677455429 0.0
136 46 1 -0.8476 19.670445498073843 12.415150710939898 0.0
137 46 2 0.4238 20.486935928993958 12.992509677455429 0.0
138 46 2 0.4238 18.853955067153727 12.992509677455429 0.0
139 47 1 -0.8476 22.774233175808817 12.415150710939898 0.0
140 47 2 0.4238 23.590723606728933 12.992509677455429 0.0
141 47 2 0.4238 21.9577427448887 12.992509677455429 0.0
142 48 1 -0.8476 25.87802085354379 12.415150710939898 0.0
143 48 2 0.4238 26.694511284463907 12.992509677455429 0.0
144 48 2 0.4238 25.061530422623676 12.992509677455429 0.0
145 49 1 -0.8476 28.981808531278766 12.415150710939898 0.0
146 49 2 0.4238 29.79829896219888 12.992509677455429 0.0
147 49 2 0.4238 28.16531810035865 12.992509677455429 0.0
148 50 1 -0.8476 2.0855962090137394 15.518938388674872 0.0
149 50 2 0.4238 2.9020866399338567 16.0962973551904 0.0
150 50 2 0.4238 1.2691057780936221 16.0962973551904 0.0
151 51 1 -0.8476 5.189383886748714 15.518938388674872 0.0
152 51 2 0.4238 6.005874317668831 16.0962973551904 0.0
153 51 2 0.4238 4.372893455828597 16.0962973551904 0.0
154 52 1 -0.8476 8.29317156448369 15.518938388674872 0.0
155 52 2 0.4238 9.109661995403807 16.0962973551904 0.0
156 52 2 0.4238 7.476681133563572 16.0962973551904 0.0
157 53 1 -0.8476 11.396959242218664 15.518938388674872 0.0
158 53 2 0.4238 12.213449673138781 16.0962973551904 0.0
159 53 2 0.4238 10.580468811298546 16.0962973551904 0.0
160 54 1 -0.8476 14.500746919953638 15.518938388674872 0.0
161 54 2 0.4238 15.317237350873755 16.0962973551904 0.0
162 54 2 0.4238 13.68425648903352 16.0962973551904 0.0
163 55 1 -0.8476 17.604534597688613 15.518938388674872 0.0
164 55 2 0.4238 18.421025028608728 16.0962973551904 0.0
165 55 2 0.4238 16.788044166768497 16.0962973551904 0.0
166 56 1 -0.8476 20.708322275423587 15.518938388674872 0.0
167 56 2 0.4238 21.524812706343702 16.0962973551904 0.0
168 56 2 0.4238 19.89183184450347 16.0962973551904 0.0
169 57 1 -0.8476 23.81210995315856 15.518938388674872 0.0
170 57 2 0.4238 24.628600384078677 16.0962973551904 0.0
171 57 2 0.4238 22.995619522238446 16.0962973551904 0.0
172 58 1 -0.8476 26.915897630893536 15.518938388674872 0.0
173 58 2 0.4238 27.73238806181365 16.0962973551904 0.0
174 58 2 0.4238 26.09940719997342 16.0962973551904 0.0
175 59 1 -0.8476 0.019685308628507998 18.622726066409847 0.0
176 59 2 0.4238 0.8361757395486252 19.200085032925376 0.0
177 59 2 0.4238 -0.7968051222916092 19.200085032925376 0.0
178 60 1 -0.8476 3.1234729863634825 18.622726066409847 0.0
179 60 2 0.4238 3.9399634172836 19.200085032925376 0.0
180 60 2 0.4238 2.306982555443365 19.200085032925376 0.0
181 61 1 -0.8476 6.2272606640984565 18.622726066409847 0.0
182 61 2 0.4238 7.043751095018574 19.200085032925376 0.0
183 61 2 0.4238 5.410770233178339 19.200085032925376 0.0
184 62 1 -0.8476 9.331048341833432 18.622726066409847 0.0
185 62 2 0.4238 10.147538772753549 19.200085032925376 0.0
186 62 2 0.4238 8.514557910913314 19.200085032925376 0.0
187 63 1 -0.8476 12.434836019568406 18.622726066409847 0.0
188 63 2 0.4238 13.251326450488524 19.200085032925376 0.0
189 63 2 0.4238 11.618345588648289 19.200085032925376 0.0
190 64 1 -0.8476 15.53862369730338 18.622726066409847 0.0
191 64 2 0.4238 16.355114128223498 19.200085032925376 0.0
192 64 2 0.4238 14.722133266383263 19.200085032925376 0.0
193 65 1 -0.8476 18.642411375038353 18.622726066409847 0.0
194 65 2 0.4238 19.45890180595847 19.200085032925376 0.0
195 65 2 0.4238 17.825920944118238 19.200085032925376 0.0
196 66 1 -0.8476 21.746199052773328 18.622726066409847 0.0
197 66 2 0.4238 22.562689483693443 19.200085032925376 0.0
198 66 2 0.4238 20.929708621853212 19.200085032925376 0.0
199 67 1 -0.8476 24.849986730508302 18.622726066409847 0.0
200 67 2 0.4238 25.666477161428418 19.200085032925376 0.0
201 67 2 0.4238 24.033496299588187 19.200085032925376 0.0
202 68 1 -0.8476 27.953774408243277 18.622726066409847 0.0
203 68 2 0.4238 28.770264839163392 19.200085032925376 0.0
204 68 2 0.4238 27.13728397732316 19.200085032925376 0.0
205 69 1 -0.8476 1.0575620859782509 21.72651374414482 0.0
206 69 2 0.4238 1.874052516898368 22.30387271066035 0.0
207 69 2 0.4238 0.24107165505813366 22.30387271066035 0.0
208 70 1 -0.8476 4.1613497637132255 21.72651374414482 0.0
209 70 2 0.4238 4.977840194633343 22.30387271066035 0.0
210 70 2 0.4238 3.344859332793108 22.30387271066035 0.0
211 71 1 -0.8476 7.2651374414482 21.72651374414482 0.0
212 71 2 0.4238 8.081627872368317 22.30387271066035 0.0
213 71 2 0.4238 6.448647010528083 22.30387271066035 0.0
214 72 1 -0.8476 10.368925119183174 21.72651374414482 0.0
215 72 2 0.4238 11.185415550103292 22.30387271066035 0.0
216 72 2 0.4238 9.552434688263057 22.30387271066035 0.0
217 73 1 -0.8476 13.472712796918149 21.72651374414482 0.0
218 73 2 0.4238 14.289203227838266 22.30387271066035 0.0
219 73 2 0.4238 12.656222365998032 22.30387271066035 0.0
220 74 1 -0.8476 16.576500474653123 21.72651374414482 0.0
221 74 2 0.4238 17.39299090557324 22.30387271066035 0.0
222 74 2 0.4238 15.760010043733006 22.30387271066035 0.0
223 75 1 -0.8476 19.680288152388098 21.72651374414482 0.0
224 75 2 0.4238 20.496778583308213 22.30387271066035 0.0
225 75 2 0.4238 18.863797721467982 22.30387271066035 0.0
226 76 1 -0.8476 22.784075830123072 21.72651374414482 0.0
227 76 2 0.4238 23.600566261043188 22.30387271066035 0.0
228 76 2 0.4238 21.967585399202957 22.30387271066035 0.0
229 77 1 -0.8476 25.887863507858047 21.72651374414482 0.0
230 77 2 0.4238 26.704353938778162 22.30387271066035 0.0
231 77 2 0.4238 25.07137307693793 22.30387271066035 0.0
232 78 1 -0.8476 28.99165118559302 21.72651374414482 0.0
233 78 2 0.4238 29.808141616513137 22.30387271066035 0.0
234 78 2 0.4238 28.175160754672905 22.30387271066035 0.0
235 79 1 -0.8476 2.0954388633279937 24.830301421879795 0.0
236 79 2 0.4238 2.911929294248111 25.407660388395325 0.0
237 79 2 0.4238 1.2789484324078764 25.407660388395325 0.0
238 80 1 -0.8476 5.199226541062968 24.830301421879795 0.0
239 80 2 0.4238 6.015716971983085 25.407660388395325 0.0
240 80 2 0.4238 4.382736110142851 25.407660388395325 0.0
241 81 1 -0.8476 8.303014218797943 24.830301421879795 0.0
242 81 2 0.4238 9.11950464971806 25.407660388395325 0.0
243 81 2 0.4238 7.486523787877825 25.407660388395325 0.0
244 82 1 -0.8476 11.406801896532917 24.830301421879795 0.0
245 82 2 0.4238 12.223292327453034 25.407660388395325 0.0
246 82 2 0.4238 10.5903114656128 25.407660388395325 0.0
247 83 1 -0.8476 14.510589574267891 24.830301421879795 0.0
248 83 2 0.4238 15.327080005188009 25.407660388395325 0.0
249 83 2 0.4238 13.694099143347774 25.407660388395325 0.0
250 84 1 -0.8476 17.614377252002864 24.830301421879795 0.0
251 84 2 0.4238 18.43086768292298 25.407660388395325 0.0
252 84 2 0.4238 16.79788682108275 25.407660388395325 0.0
253 85 1 -0.8476 20.71816492973784 24.830301421879795 0.0
254 85 2 0.4238 21.534655360657954 25.407660388395325 0.0
255 85 2 0.4238 19.901674498817723 25.407660388395325 0.0
256 86 1 -0.8476 23.821952607472813 24.830301421879795 0.0
257 86 2 0.4238 24.63844303839293 25.407660388395325 0.0
258 86 2 0.4238 23.005462176552697 25.407660388395325 0.0
259 87 1 -0.8476 26.925740285207787 24.830301421879795 0.0
260 87 2 0.4238 27.742230716127903 25.407660388395325 0.0
261 87 2 0.4238 26.109249854287672 25.407660388395325 0.0
262 88 1 -0.8476 0.029527962942761995 27.93408909961477 0.0
263 88 2 0.4238 0.8460183938628791 28.5114480661303 0.0
264 88 2 0.4238 -0.7869624679773553 28.5114480661303 0.0
265 89 1 -0.8476 3.1333156406777363 27.93408909961477 0.0
266 89 2 0.4238 3.9498060715978536 28.5114480661303 0.0
267 89 2 0.4238 2.316825209757619 28.5114480661303 0.0
268 90 1 -0.8476 6.237103318412711 27.93408909961477 0.0
269 90 2 0.4238 7.053593749332828 28.5114480661303 0.0
270 90 2 0.4238 5.420612887492593 28.5114480661303 0.0
271 91 1 -0.8476 9.340890996147685 27.93408909961477 0.0
272 91 2 0.4238 10.157381427067802 28.5114480661303 0.0
273 91 2 0.4238 8.524400565227568 28.5114480661303 0.0
274 92 1 -0.8476 12.44467867388266 27.93408909961477 0.0
275 92 2 0.4238 13.261169104802777 28.5114480661303 0.0
276 92 2 0.4238 11.628188242962542 28.5114480661303 0.0
277 93 1 -0.8476 15.548466351617634 27.93408909961477 0.0
278 93 2 0.4238 16.36495678253775 28.5114480661303 0.0
279 93 2 0.4238 14.731975920697517 28.5114480661303 0.0
280 94 1 -0.8476 18.65225402935261 27.93408909961477 0.0
281 94 2 0.4238 19.468744460272724 28.5114480661303 0.0
282 94 2 0.4238 17.835763598432493 28.5114480661303 0.0
283 95 1 -0.8476 21.756041707087583 27.93408909961477 3.1037876777349744
284 95 2 0.4238 22.5725321380077 28.5114480661303 3.1037876777349744
285 95 2 0.4238 20.939551276167467 28.5114480661303 3.1037876777349744
286 96 1 -0.8476 24.859829384822557 27.93408909961477 3.1037876777349744
287 96 2 0.4238 25.676319815742673 28.5114480661303 3.1037876777349744
288 96 2 0.4238 24.043338953902442 28.5114480661303 3.1037876777349744
289 97 1 -0.8476 27.96361706255753 27.93408909961477 3.1037876777349744
290 97 2 0.4238 28.780107493477647 28.5114480661303 3.1037876777349744
291 97 2 0.4238 27.147126631637416 28.5114480661303 3.1037876777349744
292 98 1 -0.8476 1.0674047402925049 1.0378767773497428 3.1037876777349744
293 98 2 0.4238 1.8838951712126222 1.6152357438652731 3.1037876777349744
294 98 2 0.4238 0.2509143093723877 1.6152357438652731 3.1037876777349744
295 99 1 -0.8476 4.171192418027479 1.0378767773497428 3.1037876777349744
296 99 2 0.4238 4.987682848947596 1.6152357438652731 3.1037876777349744
297 99 2 0.4238 3.3547019871073616 1.6152357438652731 3.1037876777349744
298 100 1 -0.8476 7.274980095762453 1.0378767773497428 3.1037876777349744
299 100 2 0.4238 8.09147052668257 1.6152357438652731 3.1037876777349744
300 100 2 0.4238 6.458489664842336 1.6152357438652731 3.1037876777349744
301 101 1 -0.8476 10.378767773497428 1.0378767773497428 3.1037876777349744
302 101 2 0.4238 11.195258204417545 1.6152357438652731 3.1037876777349744
303 101 2 0.4238 9.56227734257731 1.6152357438652731 3.1037876777349744
304 102 1 -0.8476 13.482555451232402 1.0378767773497428 3.1037876777349744
305 102 2 0.4238 14.29904588215252 1.6152357438652731 3.1037876777349744
306 102 2 0.4238 12.666065020312285 1.6152357438652731 3.1037876777349744
307 103 1 -0.8476 16.58634312896738 1.0378767773497428 3.1037876777349744
308 103 2 0.4238 17.402833559887494 1.6152357438652731 3.1037876777349744
309 103 2 0.4238 15.769852698047261 1.6152357438652731 3.1037876777349744
310 104 1 -0.8476 19.690130806702353 1.0378767773497428 3.1037876777349744
311 104 2 0.4238 20.50662123762247 1.6152357438652731 3.1037876777349744
312 104 2 0.4238 18.873640375782237 1.6152357438652731 3.1037876777349744
313 105 1 -0.8476 22.793918484437327 1.0378767773497428 3.1037876777349744
314 105 2 0.4238 23.610408915357443 1.6152357438652731 3.1037876777349744
315 105 2 0.4238 21.97742805351721 1.6152357438652731 3.1037876777349744
316 106 1 -0.8476 25.8977061621723 1.0378767773497428 3.1037876777349744
317 106 2 0.4238 26.714196593092417 1.6152357438652731 3.1037876777349744
318 106 2 0.4238 25.081215731252186 1.6152357438652731 3.1037876777349744
319 107 1 -0.8476 29.001493839907276 1.0378767773497428 3.1037876777349744
320 107 2 0.4238 29.81798427082739 1.6152357438652731 3.1037876777349744
321 107 2 0.4238 28.18500340898716 1.6152357438652731 3.1037876777349744
322 108 1 -0.8476 2.1052815176422475 4.141664455084717 3.1037876777349744
323 108 2 0.4238 2.9217719485623648 4.719023421600247 3.1037876777349744
324 108 2 0.4238 1.2887910867221302 4.719023421600247 3.1037876777349744
325 109 1 -0.8476 5.209069195377222 4.141664455084717 3.1037876777349744
326 109 2 0.4238 6.02555962629734 4.719023421600247 3.1037876777349744
327 109 2 0.4238 4.392578764457105 4.719023421600247 3.1037876777349744
328 110 1 -0.8476 8.312856873112196 4.141664455084717 3.1037876777349744
329 110 2 0.4238 9.129347304032313 4.719023421600247 3.1037876777349744
330 110 2 0.4238 7.496366442192079 4.719023421600247 3.1037876777349744
331 111 1 -0.8476 11.41664455084717 4.141664455084717 3.1037876777349744
332 111 2 0.4238 12.233134981767288 4.719023421600247 3.1037876777349744
333 111 2 0.4238 10.600154119927053 4.719023421600247 3.1037876777349744
334 112 1 -0.8476 14.520432228582145 4.141664455084717 3.1037876777349744
335 112 2 0.4238 15.336922659502262 4.719023421600247 3.1037876777349744
336 112 2 0.4238 13.703941797662027 4.719023421600247 3.1037876777349744
337 113 1 -0.8476 17.62421990631712 4.141664455084717 3.1037876777349744
338 113 2 0.4238 18.440710337237235 4.719023421600247 3.1037876777349744
339 113 2 0.4238 16.807729475397004 4.719023421600247 3.1037876777349744
340 114 1 -0.8476 20.728007584052094 4.141664455084717 3.1037876777349744
341 114 2 0.4238 21.54449801497221 4.719023421600247 3.1037876777349744
342 114 2 0.4238 19.911517153131978 4.719023421600247 3.1037876777349744
343 115 1 -0.8476 23.831795261787068 4.141664455084717 3.1037876777349744
344 115 2 0.4238 24.648285692707184 4.719023421600247 3.1037876777349744
345 115 2 0.4238 23.015304830866953 4.719023421600247 3.1037876777349744
346 116 1 -0.8476 26.935582939522043 4.141664455084717 3.1037876777349744
347 116 2 0.4238 27.752073370442158 4.719023421600247 3.1037876777349744
348 116 2 0.4238 26.119092508601927 4.719023421600247 3.1037876777349744
349 117 1 -0.8476 0.039370617257015995 7.2454521328196915 3.1037876777349744
350 117 2 0.4238 0.8558610481771332 7.822811099335222 3.1037876777349744
351 117 2 0.4238 -0.7771198136631012 7.822811099335222 3.1037876777349744
352 118 1 -0.8476 3.1431582949919905 7.2454521328196915 3.1037876777349744
353 118 2 0.4238 3.959648725912108 7.822811099335222 3.1037876777349744
354 118 2 0.4238 2.326667864071873 7.822811099335222 3.1037876777349744
355 119 1 -0.8476 6.246945972726965 7.2454521328196915 3.1037876777349744
356 119 2 0.4238 7.063436403647082 7.822811099335222 3.1037876777349744
357 119 2 0.4238 5.430455541806848 7.822811099335222 3.1037876777349744
358 120 1 -0.8476 9.350733650461938 7.2454521328196915 3.1037876777349744
359 120 2 0.4238 10.167224081382056 7.822811099335222 3.1037876777349744
360 120 2 0.4238 8.534243219541821 7.822811099335222 3.1037876777349744
361 121 1 -0.8476 12.454521328196913 7.2454521328196915 3.1037876777349744
362 121 2 0.4238 13.27101175911703 7.822811099335222 3.1037876777349744
363 121 2 0.4238 11.638030897276796 7.822811099335222 3.1037876777349744
364 122 1 -0.8476 15.558309005931887 7.2454521328196915 3.1037876777349744
365 122 2 0.4238 16.374799436852005 7.822811099335222 3.1037876777349744
366 122 2 0.4238 14.74181857501177 7.822811099335222 3.1037876777349744
367 123 1 -0.8476 18.662096683666864 7.2454521328196915 3.1037876777349744
368 123 2 0.4238 19.47858711458698 7.822811099335222 3.1037876777349744
369 123 2 0.4238 17.845606252746748 7.822811099335222 3.1037876777349744
370 124 1 -0.8476 21.765884361401838 7.2454521328196915 3.1037876777349744
371 124 2 0.4238 22.582374792321954 7.822811099335222 3.1037876777349744
372 124 2 0.4238 20.949393930481722 7.822811099335222 3.1037876777349744
373 125 1 -0.8476 24.869672039136812 7.2454521328196915 3.1037876777349744
374 125 2 0.4238 25.686162470056928 7.822811099335222 3.1037876777349744
375 125 2 0.4238 24.053181608216697 7.822811099335222 3.1037876777349744
376 126 1 -0.8476 27.973459716871787 7.2454521328196915 3.1037876777349744
377 126 2 0.4238 28.789950147791902 7.822811099335222 3.1037876777349744
378 126 2 0.4238 27.15696928595167 7.822811099335222 3.1037876777349744
379 127 1 -0.8476 1.077247394606759 10.349239810554666 3.1037876777349744
380 127 2 0.4238 1.893737825526876 10.926598777070197 3.1037876777349744
381 127 2 0.4238 0.2607569636866417 10.926598777070197 3.1037876777349744
382 128 1 -0.8476 4.181035072341733 10.349239810554666 3.1037876777349744
383 128 2 0.4238 4.99752550326185 10.926598777070197 3.1037876777349744
384 128 2 0.4238 3.364544641421616 10.926598777070197 3.1037876777349744
385 129 1 -0.8476 7.2848227500767075 10.349239810554666 3.1037876777349744
386 129 2 0.4238 8.101313180996824 10.926598777070197 3.1037876777349744
387 129 2 0.4238 6.46833231915659 10.926598777070197 3.1037876777349744
388 130 1 -0.8476 10.388610427811683 10.349239810554666 3.1037876777349744
389 130 2 0.4238 11.2051008587318 10.926598777070197 3.1037876777349744
390 130 2 0.4238 9.572119996891566 10.926598777070197 3.1037876777349744
391 131 1 -0.8476 13.492398105546657 10.349239810554666 3.1037876777349744
392 131 2 0.4238 14.308888536466775 10.926598777070197 3.1037876777349744
393 131 2 0.4238 12.67590767462654 10.926598777070197 3.1037876777349744
394 132 1 -0.8476 16.59618578328163 10.349239810554666 3.1037876777349744
395 132 2 0.4238 17.412676214201745 10.926598777070197 3.1037876777349744
396 132 2 0.4238 15.779695352361513 10.926598777070197 3.1037876777349744
397 133 1 -0.8476 19.699973461016604 10.349239810554666 3.1037876777349744
398 133 2 0.4238 20.51646389193672 10.926598777070197 3.1037876777349744
399 133 2 0.4238 18.88348303009649 10.926598777070197 3.1037876777349744
400 134 1 -0.8476 22.80376113875158 10.349239810554666 3.1037876777349744
401 134 2 0.4238 23.620251569671694 10.926598777070197 3.1037876777349744
402 134 2 0.4238 21.987270707831463 10.926598777070197 3.1037876777349744
403 135 1 -0.8476 25.907548816486553 10.349239810554666 3.1037876777349744
404 135 2 0.4238 26.72403924740667 10.926598777070197 3.1037876777349744
405 135 2 0.4238 25.091058385566438 10.926598777070197 3.1037876777349744
406 136 1 -0.8476 29.011336494221528 10.349239810554666 3.1037876777349744
407 136 2 0.4238 29.827826925141643 10.926598777070197 3.1037876777349744
408 136 2 0.4238 28.194846063301412 10.926598777070197 3.1037876777349744
409 137 1 -0.8476 2.1151241719565017 13.45302748828964 3.1037876777349744
410 137 2 0.4238 2.931614602876619 14.030386454805171 3.1037876777349744
411 137 2 0.4238 1.2986337410363844 14.030386454805171 3.1037876777349744
412 138 1 -0.8476 5.218911849691476 13.45302748828964 3.1037876777349744
413 138 2 0.4238 6.035402280611593 14.030386454805171 3.1037876777349744
414 138 2 0.4238 4.402421418771358 14.030386454805171 3.1037876777349744
415 139 1 -0.8476 8.322699527426451 13.45302748828964 3.1037876777349744
416 139 2 0.4238 9.139189958346568 14.030386454805171 3.1037876777349744
417 139 2 0.4238 7.506209096506334 14.030386454805171 3.1037876777349744
418 140 1 -0.8476 11.426487205161425 13.45302748828964 3.1037876777349744
419 140 2 0.4238 12.242977636081543 14.030386454805171 3.1037876777349744
420 140 2 0.4238 10.609996774241308 14.030386454805171 3.1037876777349744
421 141 1 -0.8476 14.5302748828964 13.45302748828964 3.1037876777349744
422 141 2 0.4238 15.346765313816517 14.030386454805171 3.1037876777349744
423 141 2 0.4238 13.713784451976283 14.030386454805171 3.1037876777349744
424 142 1 -0.8476 17.634062560631374 13.45302748828964 3.1037876777349744
425 142 2 0.4238 18.45055299155149 14.030386454805171 3.1037876777349744
426 142 2 0.4238 16.81757212971126 14.030386454805171 3.1037876777349744
427 143 1 -0.8476 20.73785023836635 13.45302748828964 3.1037876777349744
428 143 2 0.4238 21.554340669286464 14.030386454805171 3.1037876777349744
429 143 2 0.4238 19.921359807446233 14.030386454805171 3.1037876777349744
430 144 1 -0.8476 23.841637916101323 13.45302748828964 3.1037876777349744
431 144 2 0.4238 24.65812834702144 14.030386454805171 3.1037876777349744
432 144 2 0.4238 23.025147485181208 14.030386454805171 3.1037876777349744
433 145 1 -0.8476 26.945425593836298 13.45302748828964 3.1037876777349744
434 145 2 0.4238 27.761916024756413 14.030386454805171 3.1037876777349744
435 145 2 0.4238 26.128935162916182 14.030386454805171 3.1037876777349744
436 146 1 -0.8476 0.04921327157126999 16.556815166024617 3.1037876777349744
437 146 2 0.4238 0.8657037024913872 17.134174132540146 3.1037876777349744
438 146 2 0.4238 -0.7672771593488472 17.134174132540146 3.1037876777349744
439 147 1 -0.8476 3.1530009493062443 16.556815166024617 3.1037876777349744
440 147 2 0.4238 3.9694913802263616 17.134174132540146 3.1037876777349744
441 147 2 0.4238 2.336510518386127 17.134174132540146 3.1037876777349744
442 148 1 -0.8476 6.256788627041219 16.556815166024617 3.1037876777349744
443 148 2 0.4238 7.0732790579613365 17.134174132540146 3.1037876777349744
444 148 2 0.4238 5.440298196121102 17.134174132540146 3.1037876777349744
445 149 1 -0.8476 9.360576304776194 16.556815166024617 3.1037876777349744
446 149 2 0.4238 10.177066735696311 17.134174132540146 3.1037876777349744
447 149 2 0.4238 8.544085873856076 17.134174132540146 3.1037876777349744
448 150 1 -0.8476 12.464363982511168 16.556815166024617 3.1037876777349744
449 150 2 0.4238 13.280854413431285 17.134174132540146 3.1037876777349744
450 150 2 0.4238 11.64787355159105 17.134174132540146 3.1037876777349744
451 151 1 -0.8476 15.568151660246142 16.556815166024617 3.1037876777349744
452 151 2 0.4238 16.38464209116626 17.134174132540146 3.1037876777349744
453 151 2 0.4238 14.751661229326025 17.134174132540146 3.1037876777349744
454 152 1 -0.8476 18.671939337981115 16.556815166024617 3.1037876777349744
455 152 2 0.4238 19.48842976890123 17.134174132540146 3.1037876777349744
456 152 2 0.4238 17.855448907061 17.134174132540146 3.1037876777349744
457 153 1 -0.8476 21.77572701571609 16.556815166024617 3.1037876777349744
458 153 2 0.4238 22.592217446636205 17.134174132540146 3.1037876777349744
459 153 2 0.4238 20.959236584795974 17.134174132540146 3.1037876777349744
460 154 1 -0.8476 24.879514693451064 16.556815166024617 3.1037876777349744
461 154 2 0.4238 25.69600512437118 17.134174132540146 3.1037876777349744
462 154 2 0.4238 24.06302426253095 17.134174132540146 3.1037876777349744
463 155 1 -0.8476 27.98330237118604 16.556815166024617 3.1037876777349744
464 155 2 0.4238 28.799792802106154 17.134174132540146 3.1037876777349744
465 155 2 0.4238 27.166811940265923 17.134174132540146 3.1037876777349744
466 156 1 -0.8476 1.087090048921013 19.66060284375959 3.1037876777349744
467 156 2 0.4238 1.9035804798411302 20.23796181027512 3.1037876777349744
468 156 2 0.4238 0.2705996180008957 20.23796181027512 3.1037876777349744
469 157 1 -0.8476 4.190877726655987 19.66060284375959 3.1037876777349744
470 157 2 0.4238 5.007368157576105 20.23796181027512 3.1037876777349744
471 157 2 0.4238 3.37438729573587 20.23796181027512 3.1037876777349744
472 158 1 -0.8476 7.294665404390962 19.66060284375959 3.1037876777349744